
Host: DESKTOP-6FBKV7T

Timers On : Fri May  1 19:36:10 2020
Timers Off: Fri May  1 19:36:24 2020

Wall Time:       13.03 seconds

                                                       Time (seconds)
Module                                       User      System        Wall        Calls

--------------------------------------------------------------------------------------

**************************************************************************************

Host: DESKTOP-6FBKV7T

Timers On : Fri May  1 19:47:22 2020
Timers Off: Fri May  1 19:48:48 2020

Wall Time:       85.54 seconds

                                                       Time (seconds)
Module                                       User      System        Wall        Calls

--------------------------------------------------------------------------------------

**************************************************************************************

Host: DESKTOP-6FBKV7T

Timers On : Fri May  1 19:53:25 2020
Timers Off: Fri May  1 19:53:37 2020

Wall Time:       12.80 seconds

                                                       Time (seconds)
Module                                       User      System        Wall        Calls

--------------------------------------------------------------------------------------

**************************************************************************************

Host: DESKTOP-6FBKV7T

Timers On : Fri May  1 19:54:02 2020
Timers Off: Fri May  1 19:54:15 2020

Wall Time:       12.23 seconds

                                                       Time (seconds)
Module                                       User      System        Wall        Calls

--------------------------------------------------------------------------------------

**************************************************************************************

Host: DESKTOP-6FBKV7T

Timers On : Fri May  1 20:59:17 2020
Timers Off: Fri May  1 20:59:30 2020

Wall Time:       13.50 seconds

                                                       Time (seconds)
Module                                       User      System        Wall        Calls

--------------------------------------------------------------------------------------

**************************************************************************************
