
Host: DESKTOP-6FBKV7T

Timers On : Mon May 11 16:27:40 2020
Timers Off: Mon May 11 16:28:53 2020

Wall Time:       72.98 seconds

                                                       Time (seconds)
Module                                       User      System        Wall        Calls

--------------------------------------------------------------------------------------

**************************************************************************************
